 Entering Gaussian System, Link 0=g16
 Input=Methyl_r_opt.com
 Output=Methyl_r_opt.log
 Initial command:
 /usr/public/gaussian/g16.C01/g16/l1.exe "/gsfs0/data/xuhq/Gau-31031.inp" -scrdir="/gsfs0/data/xuhq/"
 Entering Link 1 = /usr/public/gaussian/g16.C01/g16/l1.exe PID=     31032.
  
 Copyright (c) 1988-2019, Gaussian, Inc.  All Rights Reserved.
  
 This is part of the Gaussian(R) 16 program.  It is based on
 the Gaussian(R) 09 system (copyright 2009, Gaussian, Inc.),
 the Gaussian(R) 03 system (copyright 2003, Gaussian, Inc.),
 the Gaussian(R) 98 system (copyright 1998, Gaussian, Inc.),
 the Gaussian(R) 94 system (copyright 1995, Gaussian, Inc.),
 the Gaussian 92(TM) system (copyright 1992, Gaussian, Inc.),
 the Gaussian 90(TM) system (copyright 1990, Gaussian, Inc.),
 the Gaussian 88(TM) system (copyright 1988, Gaussian, Inc.),
 the Gaussian 86(TM) system (copyright 1986, Carnegie Mellon
 University), and the Gaussian 82(TM) system (copyright 1983,
 Carnegie Mellon University). Gaussian is a federally registered
 trademark of Gaussian, Inc.
  
 This software contains proprietary and confidential information,
 including trade secrets, belonging to Gaussian, Inc.
  
 This software is provided under written license and may be
 used, copied, transmitted, or stored only in accord with that
 written license.
  
 The following legend is applicable only to US Government
 contracts under FAR:
  
                    RESTRICTED RIGHTS LEGEND
  
 Use, reproduction and disclosure by the US Government is
 subject to restrictions as set forth in subparagraphs (a)
 and (c) of the Commercial Computer Software - Restricted
 Rights clause in FAR 52.227-19.
  
 Gaussian, Inc.
 340 Quinnipiac St., Bldg. 40, Wallingford CT 06492
  
  
 ---------------------------------------------------------------
 Warning -- This program may not be used in any manner that
 competes with the business of Gaussian, Inc. or will provide
 assistance to any competitor of Gaussian, Inc.  The licensee
 of this program is prohibited from giving any competitor of
 Gaussian, Inc. access to this program.  By using this program,
 the user acknowledges that Gaussian, Inc. is engaged in the
 business of creating and licensing software in the field of
 computational chemistry and represents and warrants to the
 licensee that it is not a competitor of Gaussian, Inc. and that
 it will not use this program in any manner prohibited above.
 ---------------------------------------------------------------
  

 Cite this work as:
 Gaussian 16, Revision C.01,
 M. J. Frisch, G. W. Trucks, H. B. Schlegel, G. E. Scuseria, 
 M. A. Robb, J. R. Cheeseman, G. Scalmani, V. Barone, 
 G. A. Petersson, H. Nakatsuji, X. Li, M. Caricato, A. V. Marenich, 
 J. Bloino, B. G. Janesko, R. Gomperts, B. Mennucci, H. P. Hratchian, 
 J. V. Ortiz, A. F. Izmaylov, J. L. Sonnenberg, D. Williams-Young, 
 F. Ding, F. Lipparini, F. Egidi, J. Goings, B. Peng, A. Petrone, 
 T. Henderson, D. Ranasinghe, V. G. Zakrzewski, J. Gao, N. Rega, 
 G. Zheng, W. Liang, M. Hada, M. Ehara, K. Toyota, R. Fukuda, 
 J. Hasegawa, M. Ishida, T. Nakajima, Y. Honda, O. Kitao, H. Nakai, 
 T. Vreven, K. Throssell, J. A. Montgomery, Jr., J. E. Peralta, 
 F. Ogliaro, M. J. Bearpark, J. J. Heyd, E. N. Brothers, K. N. Kudin, 
 V. N. Staroverov, T. A. Keith, R. Kobayashi, J. Normand, 
 K. Raghavachari, A. P. Rendell, J. C. Burant, S. S. Iyengar, 
 J. Tomasi, M. Cossi, J. M. Millam, M. Klene, C. Adamo, R. Cammi, 
 J. W. Ochterski, R. L. Martin, K. Morokuma, O. Farkas, 
 J. B. Foresman, and D. J. Fox, Gaussian, Inc., Wallingford CT, 2019.
 
 ******************************************
 Gaussian 16:  ES64L-G16RevC.01  3-Jul-2019
                 2-Aug-2020 
 ******************************************
 %mem=2gb
 %nprocshared=8
 Will use up to    8 processors via shared memory.
 %chk=Methyl_r_opt.chk
 --------------------
 #p UB3LYP/6-31G* opt
 --------------------
 1/18=20,19=15,26=3,38=1/1,3;
 2/9=110,12=2,17=6,18=5,40=1/2;
 3/5=1,6=6,7=1,11=2,25=1,30=1,71=1,74=-5,116=2/1,2,3;
 4//1;
 5/5=2,38=5/2;
 6/7=2,8=2,9=2,10=2,28=1/1;
 7//1,2,3,16;
 1/18=20,19=15,26=3/3(2);
 2/9=110/2;
 99//99;
 2/9=110/2;
 3/5=1,6=6,7=1,11=2,25=1,30=1,71=1,74=-5,116=2/1,2,3;
 4/5=5,16=3,69=1/1;
 5/5=2,38=5/2;
 7//1,2,3,16;
 1/18=20,19=15,26=3/3(-5);
 2/9=110/2;
 6/7=2,8=2,9=2,10=2,19=2,28=1/1;
 99/9=1/99;
 Leave Link    1 at Sun Aug  2 23:37:40 2020, MaxMem=   268435456 cpu:               1.3 elap:               0.2
 (Enter /usr/public/gaussian/g16.C01/g16/l101.exe)
 -------
 comment
 -------
 Symbolic Z-matrix:
 Charge =  0 Multiplicity = 2
 C                    0.         0.        0.00003 
 H                     0.54117   0.93779  -0.00005 
 H                     0.54163  -0.93753  -0.00005 
 H                    -1.08278  -0.00026  -0.00005 
 
 ITRead=  0  0  0  0
 MicOpt= -1 -1 -1 -1
 NAtoms=      4 NQM=        4 NQMF=       0 NMMI=      0 NMMIF=      0
                NMic=       0 NMicF=      0.
                    Isotopes and Nuclear Properties:
 (Nuclear quadrupole moments (NQMom) in fm**2, nuclear magnetic moments (NMagM)
  in nuclear magnetons)

  Atom         1           2           3           4
 IAtWgt=          12           1           1           1
 AtmWgt=  12.0000000   1.0078250   1.0078250   1.0078250
 NucSpn=           0           1           1           1
 AtZEff=  -0.0000000  -0.0000000  -0.0000000  -0.0000000
 NQMom=    0.0000000   0.0000000   0.0000000   0.0000000
 NMagM=    0.0000000   2.7928460   2.7928460   2.7928460
 AtZNuc=   6.0000000   1.0000000   1.0000000   1.0000000
 Leave Link  101 at Sun Aug  2 23:37:41 2020, MaxMem=   268435456 cpu:               2.0 elap:               0.4
 (Enter /usr/public/gaussian/g16.C01/g16/l103.exe)

 GradGradGradGradGradGradGradGradGradGradGradGradGradGradGradGradGradGrad
 Berny optimization.
 Initialization pass.
                           ----------------------------
                           !    Initial Parameters    !
                           ! (Angstroms and Degrees)  !
 --------------------------                            --------------------------
 ! Name  Definition              Value          Derivative Info.                !
 --------------------------------------------------------------------------------
 ! R1    R(1,2)                  1.0827         estimate D2E/DX2                !
 ! R2    R(1,3)                  1.0827         estimate D2E/DX2                !
 ! R3    R(1,4)                  1.0828         estimate D2E/DX2                !
 ! A1    A(2,1,3)              119.9965         estimate D2E/DX2                !
 ! A2    A(2,1,4)              120.0018         estimate D2E/DX2                !
 ! A3    A(3,1,4)              120.0018         estimate D2E/DX2                !
 ! D1    D(2,1,4,3)            179.9863         estimate D2E/DX2                !
 --------------------------------------------------------------------------------
 Trust Radius=3.00D-01 FncErr=1.00D-07 GrdErr=1.00D-06 EigMax=2.50D+02 EigMin=1.00D-04
 Number of steps in this run=     20 maximum allowed number of steps=    100.
 GradGradGradGradGradGradGradGradGradGradGradGradGradGradGradGradGradGrad

 Leave Link  103 at Sun Aug  2 23:37:41 2020, MaxMem=   268435456 cpu:               0.1 elap:               0.0
 (Enter /usr/public/gaussian/g16.C01/g16/l202.exe)
                          Input orientation:                          
 ---------------------------------------------------------------------
 Center     Atomic      Atomic             Coordinates (Angstroms)
 Number     Number       Type             X           Y           Z
 ---------------------------------------------------------------------
      1          6           0       -0.000002    0.000000    0.000025
      2          1           0        0.541167    0.937794   -0.000050
      3          1           0        0.541625   -0.937530   -0.000050
      4          1           0       -1.082781   -0.000264   -0.000050
 ---------------------------------------------------------------------
                    Distance matrix (angstroms):
                    1          2          3          4
     1  C    0.000000
     2  H    1.082738   0.000000
     3  H    1.082738   1.875324   0.000000
     4  H    1.082779   1.875409   1.875410   0.000000
 Stoichiometry    CH3(2)
 Framework group  C1[X(CH3)]
 Deg. of freedom     6
 Full point group                 C1      NOp   1
 Largest Abelian subgroup         C1      NOp   1
 Largest concise Abelian subgroup C1      NOp   1
                         Standard orientation:                         
 ---------------------------------------------------------------------
 Center     Atomic      Atomic             Coordinates (Angstroms)
 Number     Number       Type             X           Y           Z
 ---------------------------------------------------------------------
      1          6           0        0.000002    0.000000   -0.000025
      2          1           0       -0.538243    0.939476    0.000050
      3          1           0       -0.544544   -0.935838    0.000050
      4          1           0        1.082775   -0.003638    0.000050
 ---------------------------------------------------------------------
 Rotational constants (GHZ):         285.1736539         285.1389680         142.5781560
 Leave Link  202 at Sun Aug  2 23:37:41 2020, MaxMem=   268435456 cpu:               0.4 elap:               0.1
 (Enter /usr/public/gaussian/g16.C01/g16/l301.exe)
 Standard basis: 6-31G(d) (6D, 7F)
 Ernie: Thresh=  0.10000D-02 Tol=  0.10000D-05 Strict=F.
 There are    21 symmetry adapted cartesian basis functions of A   symmetry.
 There are    21 symmetry adapted basis functions of A   symmetry.
    21 basis functions,    40 primitive gaussians,    21 cartesian basis functions
     5 alpha electrons        4 beta electrons
       nuclear repulsion energy         9.6437169103 Hartrees.
 IExCor=  402 DFT=T Ex+Corr=B3LYP ExCW=0 ScaHFX=  0.200000
 ScaDFX=  0.800000  0.720000  1.000000  0.810000 ScalE2=  1.000000  1.000000
 IRadAn=      5 IRanWt=     -1 IRanGd=            0 ICorTp=0 IEmpDi=  4
 NAtoms=    4 NActive=    4 NUniq=    4 SFac= 1.00D+00 NAtFMM=   60 NAOKFM=F Big=F
 Integral buffers will be    131072 words long.
 Raffenetti 2 integral format.
 Two-electron integral symmetry is turned on.
 Leave Link  301 at Sun Aug  2 23:37:41 2020, MaxMem=   268435456 cpu:               0.5 elap:               0.1
 (Enter /usr/public/gaussian/g16.C01/g16/l302.exe)
 NPDir=0 NMtPBC=     1 NCelOv=     1 NCel=       1 NClECP=     1 NCelD=      1
         NCelK=      1 NCelE2=     1 NClLst=     1 CellRange=     0.0.
 One-electron integrals computed using PRISM.
 One-electron integral symmetry used in STVInt
 NBasis=    21 RedAO= T EigKep=  2.78D-02  NBF=    21
 NBsUse=    21 1.00D-06 EigRej= -1.00D+00 NBFU=    21
 Precomputing XC quadrature grid using
 IXCGrd= 4 IRadAn=           5 IRanWt=          -1 IRanGd=           0 AccXCQ= 0.00D+00.
 Generated NRdTot=       0 NPtTot=           0 NUsed=           0 NTot=          32
 NSgBfM=    21    21    21    21    21 MxSgAt=     4 MxSgA2=     4.
 Leave Link  302 at Sun Aug  2 23:37:41 2020, MaxMem=   268435456 cpu:               2.8 elap:               0.5
 (Enter /usr/public/gaussian/g16.C01/g16/l303.exe)
 DipDrv:  MaxL=1.
 Leave Link  303 at Sun Aug  2 23:37:42 2020, MaxMem=   268435456 cpu:               0.6 elap:               0.2
 (Enter /usr/public/gaussian/g16.C01/g16/l401.exe)
 ExpMin= 1.61D-01 ExpMax= 3.05D+03 ExpMxC= 4.57D+02 IAcc=3 IRadAn=         5 AccDes= 0.00D+00
 Harris functional with IExCor=  402 and IRadAn=       5 diagonalized for initial guess.
 HarFok:  IExCor=  402 AccDes= 0.00D+00 IRadAn=         5 IDoV= 1 UseB2=F ITyADJ=14
 ICtDFT=  3500011 ScaDFX=  1.000000  1.000000  1.000000  1.000000
 FoFCou: FMM=F IPFlag=           0 FMFlag=      100000 FMFlg1=           0
         NFxFlg=           0 DoJE=T BraDBF=F KetDBF=T FulRan=T
         wScrn=  0.000000 ICntrl=       500 IOpCl=  0 I1Cent=   200000004 NGrid=           0
         NMat0=    1 NMatS0=      1 NMatT0=    0 NMatD0=    1 NMtDS0=    0 NMtDT0=    0
 Petite list used in FoFCou.
 Harris En= -39.8317206661685    
 JPrj=0 DoOrth=F DoCkMO=F.
 Initial guess <Sx>= 0.0000 <Sy>= 0.0000 <Sz>= 0.5000 <S**2>= 0.7500 S= 0.5000
 Leave Link  401 at Sun Aug  2 23:37:42 2020, MaxMem=   268435456 cpu:               4.2 elap:               0.7
 (Enter /usr/public/gaussian/g16.C01/g16/l502.exe)
 Keep R1 and R2 ints in memory in canonical form, NReq=6958785.
 FoFCou: FMM=F IPFlag=           0 FMFlag=           0 FMFlg1=           0
         NFxFlg=           0 DoJE=F BraDBF=F KetDBF=F FulRan=T
         wScrn=  0.000000 ICntrl=       600 IOpCl=  0 I1Cent=           0 NGrid=           0
         NMat0=    1 NMatS0=    231 NMatT0=    0 NMatD0=    1 NMtDS0=    0 NMtDT0=    0
 Symmetry not used in FoFCou.
 Two-electron integral symmetry not used.
 UHF open shell SCF:
 Using DIIS extrapolation, IDIIS=  1040.
 NGot=   268435456 LenX=   268380283 LenY=   268379401
 Requested convergence on RMS density matrix=1.00D-08 within 128 cycles.
 Requested convergence on MAX density matrix=1.00D-06.
 Requested convergence on             energy=1.00D-06.
 No special actions if energy rises.
 Integral accuracy reduced to 1.0D-05 until final iterations.

 Cycle   1  Pass 0  IDiag  1:
 E= -39.7939165861033    
 DIIS: error= 5.39D-02 at cycle   1 NSaved=   1.
 NSaved= 1 IEnMin= 1 EnMin= -39.7939165861033     IErMin= 1 ErrMin= 5.39D-02
 ErrMax= 5.39D-02  0.00D+00 EMaxC= 1.00D-01 BMatC= 1.51D-01 BMatP= 1.51D-01
 IDIUse=3 WtCom= 4.61D-01 WtEn= 5.39D-01
 Coeff-Com:  0.100D+01
 Coeff-En:   0.100D+01
 Coeff:      0.100D+01
 Gap=     0.277 Goal=   None    Shift=    0.000
 Gap=     0.382 Goal=   None    Shift=    0.000
 GapD=    0.277 DampG=1.000 DampE=0.500 DampFc=0.5000 IDamp=-1.
 Damping current iteration by 5.00D-01
 RMSDP=1.66D-02 MaxDP=1.53D-01              OVMax= 1.41D-01

 Cycle   2  Pass 0  IDiag  1:
 E= -39.8161174143448     Delta-E=       -0.022200828242 Rises=F Damp=T
 DIIS: error= 9.54D-03 at cycle   2 NSaved=   2.
 NSaved= 2 IEnMin= 2 EnMin= -39.8161174143448     IErMin= 2 ErrMin= 9.54D-03
 ErrMax= 9.54D-03  0.00D+00 EMaxC= 1.00D-01 BMatC= 5.25D-03 BMatP= 1.51D-01
 IDIUse=3 WtCom= 9.05D-01 WtEn= 9.54D-02
 Coeff-Com: -0.969D-02 0.101D+01
 Coeff-En:   0.000D+00 0.100D+01
 Coeff:     -0.877D-02 0.101D+01
 Gap=     0.334 Goal=   None    Shift=    0.000
 Gap=     0.356 Goal=   None    Shift=    0.000
 RMSDP=1.90D-03 MaxDP=1.42D-02 DE=-2.22D-02 OVMax= 6.57D-02

 Cycle   3  Pass 0  IDiag  1:
 E= -39.8382391746203     Delta-E=       -0.022121760276 Rises=F Damp=F
 DIIS: error= 1.51D-03 at cycle   3 NSaved=   3.
 NSaved= 3 IEnMin= 3 EnMin= -39.8382391746203     IErMin= 3 ErrMin= 1.51D-03
 ErrMax= 1.51D-03  0.00D+00 EMaxC= 1.00D-01 BMatC= 8.08D-05 BMatP= 5.25D-03
 IDIUse=3 WtCom= 9.85D-01 WtEn= 1.51D-02
 Coeff-Com: -0.634D-02 0.445D-02 0.100D+01
 Coeff-En:   0.000D+00 0.000D+00 0.100D+01
 Coeff:     -0.624D-02 0.438D-02 0.100D+01
 Gap=     0.338 Goal=   None    Shift=    0.000
 Gap=     0.358 Goal=   None    Shift=    0.000
 RMSDP=3.21D-04 MaxDP=2.65D-03 DE=-2.21D-02 OVMax= 3.19D-03

 Cycle   4  Pass 0  IDiag  1:
 E= -39.8382855186766     Delta-E=       -0.000046344056 Rises=F Damp=F
 DIIS: error= 3.68D-04 at cycle   4 NSaved=   4.
 NSaved= 4 IEnMin= 4 EnMin= -39.8382855186766     IErMin= 4 ErrMin= 3.68D-04
 ErrMax= 3.68D-04  0.00D+00 EMaxC= 1.00D-01 BMatC= 8.20D-06 BMatP= 8.08D-05
 IDIUse=3 WtCom= 9.96D-01 WtEn= 3.68D-03
 Coeff-Com:  0.129D-03-0.113D-01-0.305D+00 0.132D+01
 Coeff-En:   0.000D+00 0.000D+00 0.000D+00 0.100D+01
 Coeff:      0.128D-03-0.112D-01-0.304D+00 0.132D+01
 Gap=     0.339 Goal=   None    Shift=    0.000
 Gap=     0.359 Goal=   None    Shift=    0.000
 RMSDP=1.50D-04 MaxDP=1.06D-03 DE=-4.63D-05 OVMax= 1.38D-03

 Cycle   5  Pass 0  IDiag  1:
 E= -39.8382918663682     Delta-E=       -0.000006347692 Rises=F Damp=F
 DIIS: error= 6.39D-05 at cycle   5 NSaved=   5.
 NSaved= 5 IEnMin= 5 EnMin= -39.8382918663682     IErMin= 5 ErrMin= 6.39D-05
 ErrMax= 6.39D-05  0.00D+00 EMaxC= 1.00D-01 BMatC= 2.63D-07 BMatP= 8.20D-06
 IDIUse=1 WtCom= 1.00D+00 WtEn= 0.00D+00
 Coeff-Com:  0.364D-03 0.267D-02 0.112D-01-0.246D+00 0.123D+01
 Coeff:      0.364D-03 0.267D-02 0.112D-01-0.246D+00 0.123D+01
 Gap=     0.339 Goal=   None    Shift=    0.000
 Gap=     0.359 Goal=   None    Shift=    0.000
 RMSDP=3.08D-05 MaxDP=2.13D-04 DE=-6.35D-06 OVMax= 2.78D-04

 Cycle   6  Pass 0  IDiag  1:
 E= -39.8382920725118     Delta-E=       -0.000000206144 Rises=F Damp=F
 DIIS: error= 6.15D-06 at cycle   6 NSaved=   6.
 NSaved= 6 IEnMin= 6 EnMin= -39.8382920725118     IErMin= 6 ErrMin= 6.15D-06
 ErrMax= 6.15D-06  0.00D+00 EMaxC= 1.00D-01 BMatC= 1.55D-09 BMatP= 2.63D-07
 IDIUse=1 WtCom= 1.00D+00 WtEn= 0.00D+00
 Coeff-Com: -0.893D-05-0.129D-03 0.482D-02-0.216D-02-0.104D+00 0.110D+01
 Coeff:     -0.893D-05-0.129D-03 0.482D-02-0.216D-02-0.104D+00 0.110D+01
 Gap=     0.339 Goal=   None    Shift=    0.000
 Gap=     0.359 Goal=   None    Shift=    0.000
 RMSDP=2.35D-06 MaxDP=1.78D-05 DE=-2.06D-07 OVMax= 2.23D-05

 Initial convergence to 1.0D-05 achieved.  Increase integral accuracy.
 Cycle   7  Pass 1  IDiag  1:
 E= -39.8382918822246     Delta-E=        0.000000190287 Rises=F Damp=F
 DIIS: error= 1.14D-06 at cycle   1 NSaved=   1.
 NSaved= 1 IEnMin= 1 EnMin= -39.8382918822246     IErMin= 1 ErrMin= 1.14D-06
 ErrMax= 1.14D-06  0.00D+00 EMaxC= 1.00D-01 BMatC= 3.42D-11 BMatP= 3.42D-11
 IDIUse=1 WtCom= 1.00D+00 WtEn= 0.00D+00
 Coeff-Com:  0.100D+01
 Coeff:      0.100D+01
 Gap=     0.339 Goal=   None    Shift=    0.000
 Gap=     0.359 Goal=   None    Shift=    0.000
 RMSDP=2.35D-06 MaxDP=1.78D-05 DE= 1.90D-07 OVMax= 1.69D-06

 Cycle   8  Pass 1  IDiag  1:
 E= -39.8382918822358     Delta-E=       -0.000000000011 Rises=F Damp=F
 DIIS: error= 2.60D-07 at cycle   2 NSaved=   2.
 NSaved= 2 IEnMin= 2 EnMin= -39.8382918822358     IErMin= 2 ErrMin= 2.60D-07
 ErrMax= 2.60D-07  0.00D+00 EMaxC= 1.00D-01 BMatC= 1.93D-12 BMatP= 3.42D-11
 IDIUse=1 WtCom= 1.00D+00 WtEn= 0.00D+00
 Coeff-Com: -0.160D-01 0.102D+01
 Coeff:     -0.160D-01 0.102D+01
 Gap=     0.339 Goal=   None    Shift=    0.000
 Gap=     0.359 Goal=   None    Shift=    0.000
 RMSDP=6.77D-08 MaxDP=8.84D-07 DE=-1.12D-11 OVMax= 6.95D-07

 Cycle   9  Pass 1  IDiag  1:
 E= -39.8382918822364     Delta-E=       -0.000000000001 Rises=F Damp=F
 DIIS: error= 1.77D-07 at cycle   3 NSaved=   3.
 NSaved= 3 IEnMin= 3 EnMin= -39.8382918822364     IErMin= 3 ErrMin= 1.77D-07
 ErrMax= 1.77D-07  0.00D+00 EMaxC= 1.00D-01 BMatC= 1.36D-12 BMatP= 1.93D-12
 IDIUse=1 WtCom= 1.00D+00 WtEn= 0.00D+00
 Coeff-Com: -0.691D-01 0.476D+00 0.593D+00
 Coeff:     -0.691D-01 0.476D+00 0.593D+00
 Gap=     0.339 Goal=   None    Shift=    0.000
 Gap=     0.359 Goal=   None    Shift=    0.000
 RMSDP=2.57D-08 MaxDP=2.44D-07 DE=-5.54D-13 OVMax= 2.83D-07

 Cycle  10  Pass 1  IDiag  1:
 E= -39.8382918822368     Delta-E=       -0.000000000000 Rises=F Damp=F
 DIIS: error= 2.23D-08 at cycle   4 NSaved=   4.
 NSaved= 4 IEnMin= 4 EnMin= -39.8382918822368     IErMin= 4 ErrMin= 2.23D-08
 ErrMax= 2.23D-08  0.00D+00 EMaxC= 1.00D-01 BMatC= 2.30D-14 BMatP= 1.36D-12
 IDIUse=1 WtCom= 1.00D+00 WtEn= 0.00D+00
 Coeff-Com:  0.133D-01-0.171D+00-0.987D-01 0.126D+01
 Coeff:      0.133D-01-0.171D+00-0.987D-01 0.126D+01
 Gap=     0.339 Goal=   None    Shift=    0.000
 Gap=     0.359 Goal=   None    Shift=    0.000
 RMSDP=8.50D-09 MaxDP=6.13D-08 DE=-3.98D-13 OVMax= 8.79D-08

 SCF Done:  E(UB3LYP) =  -39.8382918822     A.U. after   10 cycles
            NFock= 10  Conv=0.85D-08     -V/T= 2.0101
 <Sx>= 0.0000 <Sy>= 0.0000 <Sz>= 0.5000 <S**2>= 0.7538 S= 0.5019
 <L.S>= 0.000000000000E+00
 KE= 3.943814170024D+01 PE=-1.110572985170D+02 EE= 2.213714802426D+01
 Annihilation of the first spin contaminant:
 S**2 before annihilation     0.7538,   after     0.7500
 Leave Link  502 at Sun Aug  2 23:37:43 2020, MaxMem=   268435456 cpu:               6.1 elap:               0.9
 (Enter /usr/public/gaussian/g16.C01/g16/l601.exe)
 Copying SCF densities to generalized density rwf, IOpCl= 1 IROHF=0.

 **********************************************************************

            Population analysis using the SCF Density.

 **********************************************************************

 Orbital symmetries:
 Alpha Orbitals:
       Occupied  (A) (A) (A) (A) (A)
       Virtual   (A) (A) (A) (A) (A) (A) (A) (A) (A) (A) (A) (A)
                 (A) (A) (A) (A)
 Beta  Orbitals:
       Occupied  (A) (A) (A) (A)
       Virtual   (A) (A) (A) (A) (A) (A) (A) (A) (A) (A) (A) (A)
                 (A) (A) (A) (A) (A)
 The electronic state is 2-A.
 Alpha  occ. eigenvalues --  -10.19156  -0.68121  -0.41642  -0.41641  -0.22427
 Alpha virt. eigenvalues --    0.11459   0.18203   0.18204   0.53684   0.54496
 Alpha virt. eigenvalues --    0.54498   0.68301   0.91434   0.91435   0.95804
 Alpha virt. eigenvalues --    1.65011   1.65011   2.01065   2.18669   2.18677
 Alpha virt. eigenvalues --    4.06654
  Beta  occ. eigenvalues --  -10.17745  -0.64054  -0.40678  -0.40677
  Beta virt. eigenvalues --   -0.04795   0.13072   0.18755   0.18755   0.55311
  Beta virt. eigenvalues --    0.55313   0.61532   0.70962   0.91922   0.91923
  Beta virt. eigenvalues --    0.98684   1.72172   1.72172   2.09708   2.19796
  Beta virt. eigenvalues --    2.19804   4.10439
          Condensed to atoms (all electrons):
               1          2          3          4
     1  C    5.344710   0.380953   0.380953   0.380950
     2  H    0.380953   0.516038  -0.029760  -0.029754
     3  H    0.380953  -0.029760   0.516038  -0.029754
     4  H    0.380950  -0.029754  -0.029754   0.516038
          Atomic-Atomic Spin Densities.
               1          2          3          4
     1  C    1.182398  -0.008874  -0.008874  -0.008873
     2  H   -0.008874  -0.044889   0.000920   0.000919
     3  H   -0.008874   0.000920  -0.044889   0.000919
     4  H   -0.008873   0.000919   0.000919  -0.044892
 Mulliken charges and spin densities:
               1          2
     1  C   -0.487566   1.155776
     2  H    0.162524  -0.051925
     3  H    0.162523  -0.051925
     4  H    0.162519  -0.051926
 Sum of Mulliken charges =  -0.00000   1.00000
 Mulliken charges and spin densities with hydrogens summed into heavy atoms:
               1          2
     1  C   -0.000000   1.000000
 Electronic spatial extent (au):  <R**2>=             29.4011
 Charge=             -0.0000 electrons
 Dipole moment (field-independent basis, Debye):
    X=             -0.0000    Y=              0.0000    Z=              0.0002  Tot=              0.0002
 Quadrupole moment (field-independent basis, Debye-Ang):
   XX=             -7.0057   YY=             -7.0059   ZZ=             -8.6407
   XY=             -0.0000   XZ=             -0.0000   YZ=              0.0000
 Traceless Quadrupole moment (field-independent basis, Debye-Ang):
   XX=              0.5451   YY=              0.5448   ZZ=             -1.0899
   XY=             -0.0000   XZ=             -0.0000   YZ=              0.0000
 Octapole moment (field-independent basis, Debye-Ang**2):
  XXX=              0.7993  YYY=              0.0081  ZZZ=              0.0002  XYY=             -0.7994
  XXY=             -0.0081  XXZ=              0.0001  XZZ=             -0.0001  YZZ=              0.0000
  YYZ=              0.0001  XYZ=             -0.0000
 Hexadecapole moment (field-independent basis, Debye-Ang**3):
 XXXX=            -13.9319 YYYY=            -13.9315 ZZZZ=             -8.9746 XXXY=             -0.0000
 XXXZ=              0.0001 YYYX=             -0.0000 YYYZ=              0.0000 ZZZX=             -0.0000
 ZZZY=              0.0000 XXYY=             -4.6439 XXZZ=             -4.1500 YYZZ=             -4.1498
 XXYZ=             -0.0000 YYXZ=             -0.0001 ZZXY=             -0.0000
 N-N= 9.643716910254D+00 E-N=-1.110572983476D+02  KE= 3.943814170024D+01
                          Isotropic Fermi Contact Couplings
        Atom                 a.u.       MegaHertz       Gauss      10(-4) cm-1
     1  C(13)              0.11050     124.22175      44.32541      41.43592
     2  H(1)              -0.01588     -70.98017     -25.32749     -23.67644
     3  H(1)              -0.01588     -70.98020     -25.32750     -23.67645
     4  H(1)              -0.01588     -70.98330     -25.32861     -23.67748
 --------------------------------------------------------
       Center         ----  Spin Dipole Couplings  ----
                      3XX-RR        3YY-RR        3ZZ-RR
 --------------------------------------------------------
     1   Atom       -0.547589     -0.547589      1.095179
     2   Atom       -0.035631      0.041200     -0.005568
     3   Atom       -0.034747      0.040316     -0.005568
     4   Atom        0.078737     -0.073165     -0.005571
 --------------------------------------------------------
                        XY            XZ            YZ
 --------------------------------------------------------
     1   Atom        0.000000      0.000000      0.000000
     2   Atom       -0.065526     -0.000004      0.000006
     3   Atom        0.066037     -0.000004     -0.000006
     4   Atom       -0.000510      0.000007     -0.000000
 --------------------------------------------------------


 ---------------------------------------------------------------------------------
              Anisotropic Spin Dipole Couplings in Principal Axis System
 ---------------------------------------------------------------------------------

       Atom             a.u.   MegaHertz   Gauss  10(-4) cm-1        Axes

              Baa    -0.5476   -73.481   -26.220   -24.511  0.9998 -0.0215 -0.0000
     1 C(13)  Bbb    -0.5476   -73.481   -26.220   -24.511  0.0215  0.9998 -0.0000
              Bcc     1.0952   146.962    52.440    49.021  0.0000  0.0000  1.0000
 
              Baa    -0.0732   -39.042   -13.931   -13.023  0.8677  0.4971 -0.0000
     2 H(1)   Bbb    -0.0056    -2.971    -1.060    -0.991  0.0000 -0.0001  1.0000
              Bcc     0.0787    42.013    14.991    14.014 -0.4971  0.8677  0.0001
 
              Baa    -0.0732   -39.042   -13.931   -13.023  0.8643 -0.5029 -0.0000
     3 H(1)   Bbb    -0.0056    -2.971    -1.060    -0.991  0.0000  0.0001  1.0000
              Bcc     0.0787    42.013    14.991    14.014  0.5029  0.8643 -0.0001
 
              Baa    -0.0732   -39.038   -13.930   -13.022  0.0034  1.0000  0.0000
     4 H(1)   Bbb    -0.0056    -2.973    -1.061    -0.992 -0.0001  0.0000  1.0000
              Bcc     0.0787    42.011    14.991    14.013  1.0000 -0.0034  0.0001
 

 ---------------------------------------------------------------------------------

 No NMR shielding tensors so no spin-rotation constants.
 Leave Link  601 at Sun Aug  2 23:37:43 2020, MaxMem=   268435456 cpu:               1.5 elap:               0.2
 (Enter /usr/public/gaussian/g16.C01/g16/l701.exe)
 ... and contract with generalized density number  0.
 Compute integral first derivatives.
 Leave Link  701 at Sun Aug  2 23:37:44 2020, MaxMem=   268435456 cpu:               2.4 elap:               0.4
 (Enter /usr/public/gaussian/g16.C01/g16/l702.exe)
 L702 exits ... SP integral derivatives will be done elsewhere.
 Leave Link  702 at Sun Aug  2 23:37:44 2020, MaxMem=   268435456 cpu:               0.4 elap:               0.1
 (Enter /usr/public/gaussian/g16.C01/g16/l703.exe)
 Integral derivatives from FoFJK, PRISM(SPDF).
 Compute integral first derivatives, UseDBF=F ICtDFT=           0.
 Calling FoFJK, ICntrl=      2127 FMM=F ISym2X=0 I1Cent= 0 IOpClX= 1 NMat=1 NMatS=1 NMatT=0.
 FoFJK:  IHMeth= 1 ICntrl=    2127 DoSepK=F KAlg= 0 I1Cent=           0 FoldK=F
 IRaf=         0 NMat=       1 IRICut=       1 DoRegI=T DoRafI=F ISym2E= 0 IDoP0=0 IntGTp=1.
 FoFCou: FMM=F IPFlag=           0 FMFlag=      100000 FMFlg1=         800
         NFxFlg=           0 DoJE=F BraDBF=F KetDBF=F FulRan=T
         wScrn=  0.000000 ICntrl=      2127 IOpCl=  1 I1Cent=           0 NGrid=           0
         NMat0=    1 NMatS0=      1 NMatT0=    0 NMatD0=    1 NMtDS0=    0 NMtDT0=    0
 Symmetry not used in FoFCou.
 Leave Link  703 at Sun Aug  2 23:37:44 2020, MaxMem=   268435456 cpu:               2.7 elap:               0.4
 (Enter /usr/public/gaussian/g16.C01/g16/l716.exe)
 Dipole        =-9.80849225D-06 1.06470143D-07 6.67922974D-05
 ***** Axes restored to original set *****
 -------------------------------------------------------------------
 Center     Atomic                   Forces (Hartrees/Bohr)
 Number     Number              X              Y              Z
 -------------------------------------------------------------------
      1        6          -0.000021833   -0.000000189   -0.000002658
      2        1          -0.000000856    0.000008359    0.000000886
      3        1          -0.000001072   -0.000008135    0.000000886
      4        1           0.000023761   -0.000000035    0.000000886
 -------------------------------------------------------------------
 Cartesian Forces:  Max     0.000023761 RMS     0.000009953
 Leave Link  716 at Sun Aug  2 23:37:45 2020, MaxMem=   268435456 cpu:               0.3 elap:               0.2
 (Enter /usr/public/gaussian/g16.C01/g16/l103.exe)

 GradGradGradGradGradGradGradGradGradGradGradGradGradGradGradGradGradGrad
 Berny optimization.
 FormGI is forming the generalized inverse of G from B-inverse, IUseBI=4.
 Internal  Forces:  Max     0.000023761 RMS     0.000010173
 Search for a local minimum.
 Step number   1 out of a maximum of   20
 All quantities printed in internal units (Hartrees-Bohrs-Radians)
 RMS Force = .10173D-04 SwitMx=.10000D-02 MixMth= 2
 Mixed Optimization -- En-DIIS/RFO-DIIS
 Second derivative matrix not updated -- first step.
 The second derivative matrix:
                          R1        R2        R3        A1        A2
           R1           0.35666
           R2           0.00000   0.35665
           R3           0.00000   0.00000   0.35661
           A1           0.00000   0.00000   0.00000   0.16000
           A2           0.00000   0.00000   0.00000   0.00000   0.16000
           A3           0.00000   0.00000   0.00000   0.00000   0.00000
           D1           0.00000   0.00000   0.00000   0.00000   0.00000
                          A3        D1
           A3           0.16000
           D1           0.00000   0.00330
 ITU=  0
     Eigenvalues ---    0.00330   0.16000   0.16000   0.35661   0.35665
     Eigenvalues ---    0.35666
 RFO step:  Lambda= 0.00000000D+00 EMin= 3.30349875D-03
 Linear search not attempted -- first point.
 Iteration  1 RMS(Cart)=  0.00009849 RMS(Int)=  0.00000003
 Iteration  2 RMS(Cart)=  0.00000001 RMS(Int)=  0.00000002
 ITry= 1 IFail=0 DXMaxC= 2.10D-04 DCOld= 1.00D+10 DXMaxT= 3.00D-01 DXLimC= 3.00D+00 Rises=F
 Variable       Old X    -DE/DX   Delta X   Delta X   Delta X     New X
                                 (Linear)    (Quad)   (Total)
    R1        2.04608   0.00001   0.00000   0.00002   0.00002   2.04610
    R2        2.04608   0.00001   0.00000   0.00002   0.00002   2.04610
    R3        2.04616  -0.00002   0.00000  -0.00007  -0.00007   2.04609
    A1        2.09433   0.00001   0.00000   0.00004   0.00004   2.09438
    A2        2.09443  -0.00000   0.00000  -0.00002  -0.00002   2.09440
    A3        2.09443  -0.00000   0.00000  -0.00002  -0.00002   2.09440
    D1        3.14135   0.00000   0.00000   0.00048   0.00048  -3.14136
         Item               Value     Threshold  Converged?
 Maximum Force            0.000024     0.000450     YES
 RMS     Force            0.000010     0.000300     YES
 Maximum Displacement     0.000210     0.001800     YES
 RMS     Displacement     0.000098     0.001200     YES
 Predicted change in Energy=-1.503364D-09
 Optimization completed.
    -- Stationary point found.
                           ----------------------------
                           !   Optimized Parameters   !
                           ! (Angstroms and Degrees)  !
 --------------------------                            --------------------------
 ! Name  Definition              Value          Derivative Info.                !
 --------------------------------------------------------------------------------
 ! R1    R(1,2)                  1.0827         -DE/DX =    0.0                 !
 ! R2    R(1,3)                  1.0827         -DE/DX =    0.0                 !
 ! R3    R(1,4)                  1.0828         -DE/DX =    0.0                 !
 ! A1    A(2,1,3)              119.9965         -DE/DX =    0.0                 !
 ! A2    A(2,1,4)              120.0018         -DE/DX =    0.0                 !
 ! A3    A(3,1,4)              120.0018         -DE/DX =    0.0                 !
 ! D1    D(2,1,4,3)           -180.0137         -DE/DX =    0.0                 !
 --------------------------------------------------------------------------------
 Lowest energy point so far.  Saving SCF results.
 Largest change from initial coordinates is atom    4       0.000 Angstoms.
 GradGradGradGradGradGradGradGradGradGradGradGradGradGradGradGradGradGrad

 Leave Link  103 at Sun Aug  2 23:37:45 2020, MaxMem=   268435456 cpu:               4.1 elap:               0.7
 (Enter /usr/public/gaussian/g16.C01/g16/l202.exe)
                          Input orientation:                          
 ---------------------------------------------------------------------
 Center     Atomic      Atomic             Coordinates (Angstroms)
 Number     Number       Type             X           Y           Z
 ---------------------------------------------------------------------
      1          6           0       -0.000002    0.000000    0.000025
      2          1           0        0.541167    0.937794   -0.000050
      3          1           0        0.541625   -0.937530   -0.000050
      4          1           0       -1.082781   -0.000264   -0.000050
 ---------------------------------------------------------------------
                    Distance matrix (angstroms):
                    1          2          3          4
     1  C    0.000000
     2  H    1.082738   0.000000
     3  H    1.082738   1.875324   0.000000
     4  H    1.082779   1.875409   1.875410   0.000000
 Stoichiometry    CH3(2)
 Framework group  C1[X(CH3)]
 Deg. of freedom     6
 Full point group                 C1      NOp   1
 RotChk:  IX=0 Diff= 4.38D-10
 Largest Abelian subgroup         C1      NOp   1
 Largest concise Abelian subgroup C1      NOp   1
                         Standard orientation:                         
 ---------------------------------------------------------------------
 Center     Atomic      Atomic             Coordinates (Angstroms)
 Number     Number       Type             X           Y           Z
 ---------------------------------------------------------------------
      1          6           0        0.000002    0.000000   -0.000025
      2          1           0       -0.538243    0.939476    0.000050
      3          1           0       -0.544544   -0.935838    0.000050
      4          1           0        1.082775   -0.003638    0.000050
 ---------------------------------------------------------------------
 Rotational constants (GHZ):         285.1736539         285.1389680         142.5781560
 Leave Link  202 at Sun Aug  2 23:37:45 2020, MaxMem=   268435456 cpu:               0.3 elap:               0.1
 (Enter /usr/public/gaussian/g16.C01/g16/l9999.exe)
 Unable to Open any file for archive entry.
 1\1\GINC-COMPUTE078\FOpt\UB3LYP\6-31G(d)\C1H3(2)\XUHQ\02-Aug-2020\0\\#
 p UB3LYP/6-31G* opt\\comment\\0,2\C,-0.000002,0.0000000098,0.000025\H,
 0.541167,0.937794,-0.00005\H,0.541625,-0.93753,-0.00005\H,-1.082781,-0
 .000264,-0.00005\\Version=ES64L-G16RevC.01\State=2-A\HF=-39.8382919\S2
 =0.753765\S2-1=0.\S2A=0.750007\RMSD=8.499e-09\RMSF=9.953e-06\Dipole=0.
 0000098,0.,-0.0000668\Quadrupole=0.40527,0.405081,-0.8103511,-0.000000
 5,0.,0.\PG=C01 [X(C1H3)]\\@
 The archive entry for this job was punched.


 Children are likely to live up to what you believe of them.
 -- Lady Bird Johnson
 Job cpu time:       0 days  0 hours  0 minutes 30.3 seconds.
 Elapsed time:       0 days  0 hours  0 minutes  5.2 seconds.
 File lengths (MBytes):  RWF=     17 Int=      0 D2E=      0 Chk=      2 Scr=      2
 Normal termination of Gaussian 16 at Sun Aug  2 23:37:46 2020.
